<?xml version="1.0"?>
<VTKFile type="UnstructuredGrid" version="0.1" byte_order="LittleEndian">
  <UnstructuredGrid>
    <Piece NumberOfPoints="36" NumberOfCells="32">
      <Points>
        <DataArray type="Float32" NumberOfComponents="3" format="ascii">
          5 0 0
          1.61803 1.17557 0
          1.54508 4.75528 0
          -0.618034 1.90211 0
          -4.04508 2.93893 0
          -2 2.44929e-16 0
          -4.04508 -2.93893 0
          -0.618034 -1.90211 0
          1.54508 -4.75528 0
          1.61803 -1.17557 0
          5 -1.22465e-15 0
          11 0 0
          10.8978 0.776457 0
          10.5981 1.5 0
          10.1213 2.12132 0
          9.5 2.59808 0
          8.77646 2.89778 0
          8 3 0
          7.22354 2.89778 0
          6.5 2.59808 0
          5.87868 2.12132 0
          5.40192 1.5 0
          5.10222 0.776457 0
          5 3.67394e-16 0
          5.10222 -0.776457 0
          5.40192 -1.5 0
          5.87868 -2.12132 0
          6.5 -2.59808 0
          7.22354 -2.89778 0
          8 -3 0
          8.77646 -2.89778 0
          9.5 -2.59808 0
          10.1213 -2.12132 0
          10.5981 -1.5 0
          10.8978 -0.776457 0
          11 -7.34788e-16 0
        </DataArray>
      </Points>
      <Cells>
        <DataArray type="Int32" Name="connectivity" format="ascii">
          0 1 2 
          0 2 3 
          0 3 4 
          0 4 5 
          0 5 6 
          0 6 7 
          0 7 8 
          0 8 9 
          0 9 10 
          11 12 13 
          11 13 14 
          11 14 15 
          11 15 16 
          11 16 17 
          11 17 18 
          11 18 19 
          11 19 20 
          11 20 21 
          11 21 22 
          11 22 23 
          11 23 24 
          11 24 25 
          11 25 26 
          11 26 27 
          11 27 28 
          11 28 29 
          11 29 30 
          11 30 31 
          11 31 32 
          11 32 33 
          11 33 34 
          11 34 35 
        </DataArray>
        <DataArray type="Int32" Name="offsets" format="ascii">
          3 6 9 12 15 18 21 24 27 30 33 36 39 42 45 48 51 54 57 60 63 66 69 72 75 78 81 84 87 90 93 96 
        </DataArray>
        <DataArray type="UInt8" Name="types" format="ascii">
          5 5 5 5 5 5 5 5 5 5 5 5 5 5 5 5 5 5 5 5 5 5 5 5 5 5 5 5 5 5 5 5 
        </DataArray>
      </Cells>
      <CellData>
        <DataArray type="Float32" Name="Normals" NumberOfComponents="3" format="ascii">
          0 0 -1
          0 0 1
          0 0 1
          0 0 1
          0 0 1
          0 0 1
          0 0 1
          0 0 -1
          0 0 4.14171e-15
          0 0 1
          0 0 1
          0 0 1
          0 0 1
          0 0 1
          0 0 1
          0 0 1
          0 0 1
          0 0 1
          0 0 1
          0 0 1
          0 0 1
          0 0 1
          0 0 1
          0 0 1
          0 0 1
          0 0 1
          0 0 1
          0 0 1
          0 0 1
          0 0 1
          0 0 1
          0 0 7.51119e-17
        </DataArray>
      </CellData>
    </Piece>
  </UnstructuredGrid>
</VTKFile>
