<?xml version="1.0"?>
<VTKFile type="UnstructuredGrid" version="0.1" byte_order="LittleEndian">
  <UnstructuredGrid>
    <Piece NumberOfPoints="123" NumberOfCells="113">
      <Points>
        <DataArray type="Float32" NumberOfComponents="3" format="ascii">
          0 0 0
          10 0 0
          10 7 0
          0 7 0
          0 0 0
          18.5 5 0
          18.4468 5.60777 0
          18.2889 6.19707 0
          18.0311 6.75 0
          17.6812 7.24976 0
          17.2498 7.68116 0
          16.75 8.03109 0
          16.1971 8.28892 0
          15.6078 8.44683 0
          15 8.5 0
          14.3922 8.44683 0
          13.8029 8.28892 0
          13.25 8.03109 0
          12.7502 7.68116 0
          12.3188 7.24976 0
          11.9689 6.75 0
          11.7111 6.19707 0
          11.5532 5.60777 0
          11.5 5 0
          11.5532 4.39223 0
          11.7111 3.80293 0
          11.9689 3.25 0
          12.3188 2.75024 0
          12.7502 2.31884 0
          13.25 1.96891 0
          13.8029 1.71108 0
          14.3922 1.55317 0
          15 1.5 0
          15.6078 1.55317 0
          16.1971 1.71108 0
          16.75 1.96891 0
          17.2498 2.31884 0
          17.6812 2.75024 0
          18.0311 3.25 0
          18.2889 3.80293 0
          18.4468 4.39223 0
          18.5 5 0
          9 15 0
          7 18.4641 0
          3 18.4641 0
          1 15 0
          3 11.5359 0
          7 11.5359 0
          9 15 0
          20 15 0
          19.924 15.8682 0
          19.6985 16.7101 0
          19.3301 17.5 0
          18.8302 18.2139 0
          18.2139 18.8302 0
          17.5 19.3301 0
          16.7101 19.6985 0
          15.8682 19.924 0
          15 20 0
          14.1318 19.924 0
          13.2899 19.6985 0
          12.5 19.3301 0
          11.7861 18.8302 0
          11.1698 18.2139 0
          10.6699 17.5 0
          10.3015 16.7101 0
          10.076 15.8682 0
          10 15 0
          10.076 14.1318 0
          10.3015 13.2899 0
          10.6699 12.5 0
          11.1698 11.7861 0
          11.7861 11.1698 0
          12.5 10.6699 0
          13.2899 10.3015 0
          14.1318 10.076 0
          15 10 0
          15.8682 10.076 0
          16.7101 10.3015 0
          17.5 10.6699 0
          18.2139 11.1698 0
          18.8302 11.7861 0
          19.3301 12.5 0
          19.6985 13.2899 0
          19.924 14.1318 0
          20 15 0
          17 15 0
          16.9696 14.6527 0
          16.8794 14.316 0
          16.7321 14 0
          16.5321 13.7144 0
          16.2856 13.4679 0
          16 13.2679 0
          15.684 13.1206 0
          15.3473 13.0304 0
          15 13 0
          14.6527 13.0304 0
          14.316 13.1206 0
          14 13.2679 0
          13.7144 13.4679 0
          13.4679 13.7144 0
          13.2679 14 0
          13.1206 14.316 0
          13.0304 14.6527 0
          13 15 0
          13.0304 15.3473 0
          13.1206 15.684 0
          13.2679 16 0
          13.4679 16.2856 0
          13.7144 16.5321 0
          14 16.7321 0
          14.316 16.8794 0
          14.6527 16.9696 0
          15 17 0
          15.3473 16.9696 0
          15.684 16.8794 0
          16 16.7321 0
          16.2856 16.5321 0
          16.5321 16.2856 0
          16.7321 16 0
          16.8794 15.684 0
          16.9696 15.3473 0
          17 15 0
        </DataArray>
      </Points>
      <Cells>
        <DataArray type="Int32" Name="connectivity" format="ascii">
          0 1 2 
          0 2 3 
          0 3 4 
          5 6 7 
          5 7 8 
          5 8 9 
          5 9 10 
          5 10 11 
          5 11 12 
          5 12 13 
          5 13 14 
          5 14 15 
          5 15 16 
          5 16 17 
          5 17 18 
          5 18 19 
          5 19 20 
          5 20 21 
          5 21 22 
          5 22 23 
          5 23 24 
          5 24 25 
          5 25 26 
          5 26 27 
          5 27 28 
          5 28 29 
          5 29 30 
          5 30 31 
          5 31 32 
          5 32 33 
          5 33 34 
          5 34 35 
          5 35 36 
          5 36 37 
          5 37 38 
          5 38 39 
          5 39 40 
          5 40 41 
          42 43 44 
          42 44 45 
          42 45 46 
          42 46 47 
          42 47 48 
          49 50 51 
          49 51 52 
          49 52 53 
          49 53 54 
          49 54 55 
          49 55 56 
          49 56 57 
          49 57 58 
          49 58 59 
          49 59 60 
          49 60 61 
          49 61 62 
          49 62 63 
          49 63 64 
          49 64 65 
          49 65 66 
          49 66 67 
          49 67 68 
          49 68 69 
          49 69 70 
          49 70 71 
          49 71 72 
          49 72 73 
          49 73 74 
          49 74 75 
          49 75 76 
          49 76 77 
          49 77 78 
          49 78 79 
          49 79 80 
          49 80 81 
          49 81 82 
          49 82 83 
          49 83 84 
          49 84 85 
          86 87 88 
          86 88 89 
          86 89 90 
          86 90 91 
          86 91 92 
          86 92 93 
          86 93 94 
          86 94 95 
          86 95 96 
          86 96 97 
          86 97 98 
          86 98 99 
          86 99 100 
          86 100 101 
          86 101 102 
          86 102 103 
          86 103 104 
          86 104 105 
          86 105 106 
          86 106 107 
          86 107 108 
          86 108 109 
          86 109 110 
          86 110 111 
          86 111 112 
          86 112 113 
          86 113 114 
          86 114 115 
          86 115 116 
          86 116 117 
          86 117 118 
          86 118 119 
          86 119 120 
          86 120 121 
          86 121 122 
        </DataArray>
        <DataArray type="Int32" Name="offsets" format="ascii">
          3 6 9 12 15 18 21 24 27 30 33 36 39 42 45 48 51 54 57 60 63 66 69 72 75 78 81 84 87 90 93 96 99 102 105 108 111 114 117 120 123 126 129 132 135 138 141 144 147 150 153 156 159 162 165 168 171 174 177 180 183 186 189 192 195 198 201 204 207 210 213 216 219 222 225 228 231 234 237 240 243 246 249 252 255 258 261 264 267 270 273 276 279 282 285 288 291 294 297 300 303 306 309 312 315 318 321 324 327 330 333 336 339 
        </DataArray>
        <DataArray type="UInt8" Name="types" format="ascii">
          5 5 5 5 5 5 5 5 5 5 5 5 5 5 5 5 5 5 5 5 5 5 5 5 5 5 5 5 5 5 5 5 5 5 5 5 5 5 5 5 5 5 5 5 5 5 5 5 5 5 5 5 5 5 5 5 5 5 5 5 5 5 5 5 5 5 5 5 5 5 5 5 5 5 5 5 5 5 5 5 5 5 5 5 5 5 5 5 5 5 5 5 5 5 5 5 5 5 5 5 5 5 5 5 5 5 5 5 5 5 5 5 5 
        </DataArray>
      </Cells>
      <CellData>
        <DataArray type="Float32" Name="Normals" NumberOfComponents="3" format="ascii">
          0 0 1
          0 0 1
          0 0 0
          0 0 1
          0 0 1
          0 0 1
          0 0 1
          0 0 1
          0 0 1
          0 0 1
          0 0 1
          0 0 1
          0 0 1
          0 0 1
          0 0 1
          0 0 1
          0 0 1
          0 0 1
          0 0 1
          0 0 1
          0 0 1
          0 0 1
          0 0 1
          0 0 1
          0 0 1
          0 0 1
          0 0 1
          0 0 1
          0 0 1
          0 0 1
          0 0 1
          0 0 1
          0 0 1
          0 0 1
          0 0 1
          0 0 1
          0 0 1
          0 0 4.7227e-17
          0 0 1
          0 0 1
          0 0 1
          0 0 1
          0 0 3.55271e-15
          0 0 1
          0 0 1
          0 0 1
          0 0 1
          0 0 1
          0 0 1
          0 0 1
          0 0 1
          0 0 1
          0 0 1
          0 0 1
          0 0 1
          0 0 1
          0 0 1
          0 0 1
          0 0 1
          0 0 1
          0 0 1
          0 0 1
          0 0 1
          0 0 1
          0 0 1
          0 0 1
          0 0 1
          0 0 1
          0 0 1
          0 0 1
          0 0 1
          0 0 1
          0 0 1
          0 0 1
          0 0 1
          0 0 1
          0 0 1
          -0 0 0
          0 0 -1
          0 0 -1
          0 0 -1
          0 0 -1
          0 0 -1
          0 0 -1
          0 0 -1
          0 0 -1
          0 0 -1
          0 0 -1
          0 0 -1
          0 0 -1
          0 0 -1
          0 0 -1
          0 0 -1
          0 0 -1
          -0 0 -1
          0 0 -1
          0 0 -1
          0 0 -1
          0 0 -1
          0 0 -1
          0 0 -1
          0 0 -1
          0 0 -1
          0 0 -1
          0 0 -1
          0 0 -1
          0 0 -1
          0 0 -1
          0 0 -1
          0 0 -1
          0 0 -1
          0 0 -1
          0 0 -0
        </DataArray>
      </CellData>
    </Piece>
  </UnstructuredGrid>
</VTKFile>
