<?xml version="1.0"?>
<VTKFile type="UnstructuredGrid" version="0.1" byte_order="LittleEndian">
  <UnstructuredGrid>
    <Piece NumberOfPoints="5" NumberOfCells="3">
      <Points>
        <DataArray type="Float32" NumberOfComponents="3" format="ascii">
          0 0 0
          1 0 0
          1 1 0
          0 1 0
          0 0 0
        </DataArray>
      </Points>
      <Cells>
        <DataArray type="Int32" Name="connectivity" format="ascii">
          0 1 2 
          0 2 3 
          0 3 4 
        </DataArray>
        <DataArray type="Int32" Name="offsets" format="ascii">
          3 6 9 
        </DataArray>
        <DataArray type="UInt8" Name="types" format="ascii">
          5 5 5 
        </DataArray>
      </Cells>
      <CellData>
        <DataArray type="Float32" Name="Normals" NumberOfComponents="3" format="ascii">
          0 0 1
          0 0 1
          0 0 0
        </DataArray>
      </CellData>
    </Piece>
  </UnstructuredGrid>
</VTKFile>
